 Gaussian 09, Revision D.01,
 Gaussian 09:  EM64L-G09RevD.01 24-Apr-2013

 ---------------------------------------------------------------
 #p M06/6-311+g(d) polar=gamma pop=chelpg density=current NoSymm
 ---------------------------------------------------------------

 --------------
 ONL_VSNS_0_M06
 --------------
 Symbolic Z-matrix:
 Charge =  0 Multiplicity = 1

                          Input orientation:
 ---------------------------------------------------------------------
 Center     Atomic      Atomic             Coordinates (Angstroms)
 Number     Number       Type             X           Y           Z
 ---------------------------------------------------------------------
      1          6           0        4.981328    0.071552   10.993252
      2          1           0        5.237190   -0.321152   11.796859
      3          6           0        3.721703   -0.115648   10.538604
      4          1           0        3.115443   -0.622336   11.027606
      5          6           0        3.348624    0.456768    9.338043
      6          1           0        2.486605    0.336960    9.009138
      7          6           0        4.260512    1.200576    8.637825
      8          1           0        4.008560    1.584128    7.828959
      9          6           0        5.554116    1.395680    9.108582
     10          6           0        6.571241    2.139654    8.393078
     11          1           0        7.424292    2.184832    8.762582
     12          6           0        6.352534    2.762240    7.236733
     13          1           0        5.487633    2.713152    6.900267
     14          6           0        7.313628    3.510208    6.440030
     15          6           0        6.859881    4.162080    5.285657
     16          1           0        5.964942    4.086784    5.044526
     17          6           0        7.706735    4.910298    4.500788
     18          6           0        9.054207    5.005312    4.845144
     19          6           0        9.516534    4.350528    5.975355
     20          1           0       10.415511    4.407104    6.204980
     21          6           0        8.656140    3.617536    6.763017
     22          1           0        8.980968    3.189056    7.521586
     23          6           0        7.209337    0.995072   10.903999
     24          1           0        7.243593    0.545792   11.752479
     25          1           0        7.874112    0.624832   10.319170
     26          1           0        7.379610    1.931072   11.030893
     27          6           0       11.211774    5.821504    4.267876
     28          1           0       11.572521    4.932928    4.304859
     29          1           0       11.643778    6.314048    3.566836
     30          1           0       11.360398    6.262464    5.106986
     31          7           0        5.874834    0.814528   10.306020
     32          8           0        7.303978    5.576563    3.386193
     33          8           0        9.824057    5.755027    4.009650
     34          1           0        6.491451    5.358080    3.188784
     35          6           0       11.625734    3.489158    8.897037
     36          6           0       11.799321    4.840243    8.824879
     37          1           0       11.333829    5.398848    9.405271
     38          6           0       12.684164    5.393856    7.871531
     39          6           0       12.895367    6.789120    7.750719
     40          1           0       12.443058    7.374848    8.313851
     41          6           0       13.756273    7.278336    6.816602
     42          1           0       13.881943    8.196864    6.744115
     43          6           0       14.450900    6.418048    5.966807
     44          1           0       15.035548    6.766656    5.332174
     45          6           0       14.279507    5.076032    6.059348
     46          1           0       14.754396    4.512768    5.493257
     47          6           0       13.388097    4.521920    7.004971
     48          6           0       13.186172    3.129984    7.116085
     49          1           0       13.649195    2.551744    6.553445
     50          6           0       12.324882    2.624128    8.035244
     51          1           0       12.196412    1.704768    8.095239
     52          8           0        9.413483    3.682848   10.235176
     53          8           0       11.304968    2.659072   11.327088
     54          8           0       10.131317    1.509414    9.570298
     55         16           0       10.537122    2.790195   10.108447
     56          8           0        3.560232    2.189824    5.300286
     57          1           0        4.022351    2.146560    4.620450
     58          1           0        3.325427    3.020160    5.397922
     59          8           0        4.825874    4.922944    2.761915
     60          1           0        4.705227    4.293120    2.368577
     61          1           0        4.096599    5.366400    2.843607
 ---------------------------------------------------------------------

 SCF Done:  E(RM06) =  -1947.09383134     A.U. after   21 cycles
 SCF Done:  E(RM06) =  -1947.09611279     A.U. after   17 cycles
 SCF Done:  E(RM06) =  -1947.09159590     A.U. after   16 cycles
 SCF Done:  E(RM06) =  -1947.09426830     A.U. after   16 cycles
 SCF Done:  E(RM06) =  -1947.09343389     A.U. after   15 cycles
 SCF Done:  E(RM06) =  -1947.09483133     A.U. after   16 cycles
 SCF Done:  E(RM06) =  -1947.09287479     A.U. after   15 cycles

 Alpha  occ. eigenvalues --  -89.15781 -19.24696 -19.23449 -19.23245 -19.21313
 Alpha  occ. eigenvalues --  -19.10341 -19.10260 -19.09500 -14.51209 -10.34975
 Alpha  occ. eigenvalues --  -10.32522 -10.30081 -10.29715 -10.28962 -10.27745
 Alpha  occ. eigenvalues --  -10.27554 -10.26034 -10.24917 -10.24857 -10.24197
 Alpha  occ. eigenvalues --  -10.23501 -10.22733 -10.22492 -10.22423 -10.21806
 Alpha  occ. eigenvalues --  -10.21722 -10.21633 -10.20460 -10.20425 -10.20262
 Alpha  occ. eigenvalues --  -10.20175 -10.19817 -10.19722 -10.19568  -8.15332
 Alpha  occ. eigenvalues --   -6.06887  -6.06847  -6.06806  -1.19067  -1.14487
 Alpha  occ. eigenvalues --   -1.10640  -1.08936  -1.08602  -1.06900  -0.94552
 Alpha  occ. eigenvalues --   -0.93928  -0.90560  -0.89239  -0.87758  -0.87518
 Alpha  occ. eigenvalues --   -0.82819  -0.82715  -0.79488  -0.78189  -0.78076
 Alpha  occ. eigenvalues --   -0.77764  -0.74854  -0.74369  -0.73258  -0.73221
 Alpha  occ. eigenvalues --   -0.70449  -0.69694  -0.66989  -0.66015  -0.64936
 Alpha  occ. eigenvalues --   -0.64621  -0.62743  -0.62182  -0.61872  -0.61397
 Alpha  occ. eigenvalues --   -0.59361  -0.57159  -0.56930  -0.56526  -0.55262
 Alpha  occ. eigenvalues --   -0.54201  -0.53821  -0.53670  -0.52936  -0.51848
 Alpha  occ. eigenvalues --   -0.51186  -0.49774  -0.49271  -0.48430  -0.48273
 Alpha  occ. eigenvalues --   -0.47942  -0.47059  -0.46804  -0.46610  -0.45862
 Alpha  occ. eigenvalues --   -0.45166  -0.45034  -0.44936  -0.44506  -0.43809
 Alpha  occ. eigenvalues --   -0.43387  -0.43067  -0.42752  -0.41618  -0.41481
 Alpha  occ. eigenvalues --   -0.41198  -0.40103  -0.40071  -0.39533  -0.38639
 Alpha  occ. eigenvalues --   -0.38484  -0.38349  -0.38151  -0.36998  -0.36169
 Alpha  occ. eigenvalues --   -0.36003  -0.34993  -0.34765  -0.34488  -0.33592
 Alpha  occ. eigenvalues --   -0.32811  -0.29396  -0.29119  -0.28541  -0.28154
 Alpha  occ. eigenvalues --   -0.25816  -0.25545  -0.24824  -0.24675  -0.22638
 Alpha  occ. eigenvalues --   -0.21912  -0.20698  -0.19725
 Alpha virt. eigenvalues --   -0.10499  -0.08141  -0.05718  -0.04720  -0.03118
 Alpha virt. eigenvalues --   -0.02194  -0.02008  -0.01900  -0.01558  -0.01146
 Alpha virt. eigenvalues --   -0.00538  -0.00486  -0.00352   0.00064   0.00336

 Dipole moment (field-independent basis, Debye):
    X=            -17.3082    Y=             -3.3009    Z=             -7.1285  Tot=             19.0075
 Quadrupole moment (field-independent basis, Debye-Ang):
   XX=           -442.7087   YY=           -211.3434   ZZ=           -306.7917
   XY=            -59.9329   XZ=           -218.2099   YZ=            -64.2491

  Exact polarizability: 414.030 126.971 354.915-101.931-140.676 390.388
 Approx polarizability: 562.944 152.153 570.584-157.010-198.666 599.475

 ESP charges:
               1
     1  C    0.088581
     2  H    0.128093
     3  C   -0.247728
     4  H    0.157382
     5  C    0.126939
     6  H    0.095671
     7  C   -0.418679
     8  H    0.279340
     9  C    0.477659
    10  C   -0.463456
    11  H    0.272127
    12  C    0.059805
    13  H    0.065921
    14  C    0.094726
    15  C   -0.464692
    16  H    0.187359
    17  C    0.380559
    18  C    0.319105
    19  C   -0.341235
    20  H    0.191557
    21  C   -0.021577
    22  H    0.046301
    23  C   -0.035993
    24  H    0.090112
    25  H    0.115388
    26  H    0.108969
    27  C    0.196159
    28  H   -0.021349
    29  H    0.035500
    30  H    0.004074
    31  N   -0.141426
    32  O   -0.851217
    33  O   -0.318724
    34  H    0.708169
    35  C   -0.088754
    36  C   -0.178935
    37  H    0.113650
    38  C    0.152838
    39  C   -0.235507
    40  H    0.146729
    41  C   -0.084763
    42  H    0.094922
    43  C   -0.097538
    44  H    0.100457
    45  C   -0.236104
    46  H    0.129659
    47  C    0.199296
    48  C   -0.309371
    49  H    0.153215
    50  C   -0.005494
    51  H    0.083806
    52  O   -0.757080
    53  O   -0.757865
    54  O   -0.774478
    55  S    1.505897
    56  O   -0.943695
    57  H    0.475151
    58  H    0.459746
    59  O   -1.109206
    60  H    0.531440
    61  H    0.528567
 Sum of ESP charges =   0.00000

 Normal termination of Gaussian 09 at Mon Jan 18 16:39:14 2021.
