 Gaussian 09, Revision D.01,
 Gaussian 09:  EM64L-G09RevD.01 24-Apr-2013

 ---------------------------------------------------------------
 #p M11/6-311+g(d) polar=gamma pop=chelpg density=current NoSymm
 ---------------------------------------------------------------

 ----------------
 ONL_VSNS_0_M062X
 ----------------
 Symbolic Z-matrix:
 Charge =  0 Multiplicity = 1

                          Input orientation:
 ---------------------------------------------------------------------
 Center     Atomic      Atomic             Coordinates (Angstroms)
 Number     Number       Type             X           Y           Z
 ---------------------------------------------------------------------
      1          6           0        4.981328    0.071552   10.993252
      2          1           0        5.237190   -0.321152   11.796859
      3          6           0        3.721703   -0.115648   10.538604
      4          1           0        3.115443   -0.622336   11.027606
      5          6           0        3.348624    0.456768    9.338043
      6          1           0        2.486605    0.336960    9.009138
      7          6           0        4.260512    1.200576    8.637825
      8          1           0        4.008560    1.584128    7.828959
      9          6           0        5.554116    1.395680    9.108582
     10          6           0        6.571241    2.139654    8.393078
     11          1           0        7.424292    2.184832    8.762582
     12          6           0        6.352534    2.762240    7.236733
     13          1           0        5.487633    2.713152    6.900267
     14          6           0        7.313628    3.510208    6.440030
     15          6           0        6.859881    4.162080    5.285657
     16          1           0        5.964942    4.086784    5.044526
     17          6           0        7.706735    4.910298    4.500788
     18          6           0        9.054207    5.005312    4.845144
     19          6           0        9.516534    4.350528    5.975355
     20          1           0       10.415511    4.407104    6.204980
     21          6           0        8.656140    3.617536    6.763017
     22          1           0        8.980968    3.189056    7.521586
     23          6           0        7.209337    0.995072   10.903999
     24          1           0        7.243593    0.545792   11.752479
     25          1           0        7.874112    0.624832   10.319170
     26          1           0        7.379610    1.931072   11.030893
     27          6           0       11.211774    5.821504    4.267876
     28          1           0       11.572521    4.932928    4.304859
     29          1           0       11.643778    6.314048    3.566836
     30          1           0       11.360398    6.262464    5.106986
     31          7           0        5.874834    0.814528   10.306020
     32          8           0        7.303978    5.576563    3.386193
     33          8           0        9.824057    5.755027    4.009650
     34          1           0        6.491451    5.358080    3.188784
     35          6           0       11.625734    3.489158    8.897037
     36          6           0       11.799321    4.840243    8.824879
     37          1           0       11.333829    5.398848    9.405271
     38          6           0       12.684164    5.393856    7.871531
     39          6           0       12.895367    6.789120    7.750719
     40          1           0       12.443058    7.374848    8.313851
     41          6           0       13.756273    7.278336    6.816602
     42          1           0       13.881943    8.196864    6.744115
     43          6           0       14.450900    6.418048    5.966807
     44          1           0       15.035548    6.766656    5.332174
     45          6           0       14.279507    5.076032    6.059348
     46          1           0       14.754396    4.512768    5.493257
     47          6           0       13.388097    4.521920    7.004971
     48          6           0       13.186172    3.129984    7.116085
     49          1           0       13.649195    2.551744    6.553445
     50          6           0       12.324882    2.624128    8.035244
     51          1           0       12.196412    1.704768    8.095239
     52          8           0        9.413483    3.682848   10.235176
     53          8           0       11.304968    2.659072   11.327088
     54          8           0       10.131317    1.509414    9.570298
     55         16           0       10.537122    2.790195   10.108447
     56          8           0        3.560232    2.189824    5.300286
     57          1           0        4.022351    2.146560    4.620450
     58          1           0        3.325427    3.020160    5.397922
     59          8           0        4.825874    4.922944    2.761915
     60          1           0        4.705227    4.293120    2.368577
     61          1           0        4.096599    5.366400    2.843607
 ---------------------------------------------------------------------

 SCF Done:  E(RM11) =  -1947.31845594     A.U. after   22 cycles
 SCF Done:  E(RM11) =  -1947.32080004     A.U. after   17 cycles
 SCF Done:  E(RM11) =  -1947.31615414     A.U. after   19 cycles
 SCF Done:  E(RM11) =  -1947.31897289     A.U. after   19 cycles
 SCF Done:  E(RM11) =  -1947.31797571     A.U. after   18 cycles
 SCF Done:  E(RM11) =  -1947.31935737     A.U. after   28 cycles
 SCF Done:  E(RM11) =  -1947.31759482     A.U. after   27 cycles

 Alpha  occ. eigenvalues --  -89.52000 -19.47403 -19.46168 -19.45119 -19.43411
 Alpha  occ. eigenvalues --  -19.33278 -19.33267 -19.32244 -14.73366 -10.54533
 Alpha  occ. eigenvalues --  -10.51892 -10.48263 -10.48227 -10.47961 -10.46901
 Alpha  occ. eigenvalues --  -10.46865 -10.44853 -10.43601 -10.43131 -10.43019
 Alpha  occ. eigenvalues --  -10.41413 -10.41346 -10.41224 -10.40923 -10.40656
 Alpha  occ. eigenvalues --  -10.40022 -10.39899 -10.39290 -10.39264 -10.39073
 Alpha  occ. eigenvalues --  -10.38954 -10.38672 -10.38658 -10.38434  -8.19482
 Alpha  occ. eigenvalues --   -6.19054  -6.19020  -6.18980  -1.29938  -1.25510
 Alpha  occ. eigenvalues --   -1.21232  -1.20935  -1.20522  -1.18722  -1.04556
 Alpha  occ. eigenvalues --   -1.04047  -1.03853  -1.02458  -1.01165  -1.00514
 Alpha  occ. eigenvalues --   -0.95939  -0.95475  -0.92717  -0.91105  -0.90343
 Alpha  occ. eigenvalues --   -0.89820  -0.87416  -0.86768  -0.85804  -0.85137
 Alpha  occ. eigenvalues --   -0.82142  -0.81233  -0.78496  -0.77550  -0.76483
 Alpha  occ. eigenvalues --   -0.76446  -0.74409  -0.73757  -0.73673  -0.72485
 Alpha  occ. eigenvalues --   -0.70378  -0.68269  -0.67615  -0.67582  -0.65542
 Alpha  occ. eigenvalues --   -0.65479  -0.65152  -0.64292  -0.63767  -0.62784
 Alpha  occ. eigenvalues --   -0.61435  -0.60174  -0.59333  -0.58818  -0.58185
 Alpha  occ. eigenvalues --   -0.57932  -0.57368  -0.57124  -0.56914  -0.56332
 Alpha  occ. eigenvalues --   -0.56072  -0.55277  -0.54748  -0.54241  -0.54076
 Alpha  occ. eigenvalues --   -0.53805  -0.53098  -0.52634  -0.51774  -0.51637
 Alpha  occ. eigenvalues --   -0.51176  -0.50567  -0.50519  -0.49927  -0.49147
 Alpha  occ. eigenvalues --   -0.48650  -0.48218  -0.47852  -0.46090  -0.45529
 Alpha  occ. eigenvalues --   -0.45319  -0.44144  -0.44138  -0.43593  -0.42945
 Alpha  occ. eigenvalues --   -0.42545  -0.39427  -0.38877  -0.38104  -0.37547
 Alpha  occ. eigenvalues --   -0.35310  -0.34835  -0.33953  -0.33507  -0.31199
 Alpha  occ. eigenvalues --   -0.29619  -0.28955  -0.28784
 Alpha virt. eigenvalues --   -0.04561  -0.01847  -0.01599  -0.00704   0.00368
 Alpha virt. eigenvalues --    0.01569   0.01910   0.02665   0.02799   0.03444
 Alpha virt. eigenvalues --    0.03702   0.03841   0.04047   0.04163   0.04649

 Dipole moment (field-independent basis, Debye):
    X=            -17.7839    Y=             -3.9055    Z=             -6.4128  Tot=             19.3040
 Quadrupole moment (field-independent basis, Debye-Ang):
   XX=           -445.8989   YY=           -214.1734   ZZ=           -296.5034
   XY=            -64.0862   XZ=           -217.7485   YZ=            -66.9163

  Exact polarizability: 380.199 106.672 329.879 -82.969-121.881 362.028
 Approx polarizability: 356.055  60.890 359.086 -61.255 -85.590 369.067

 ESP charges:
               1
     1  C    0.075591
     2  H    0.147996
     3  C   -0.274768
     4  H    0.177800
     5  C    0.123431
     6  H    0.113271
     7  C   -0.447481
     8  H    0.295597
     9  C    0.502026
    10  C   -0.510128
    11  H    0.293777
    12  C    0.058494
    13  H    0.089416
    14  C    0.083998
    15  C   -0.500887
    16  H    0.211261
    17  C    0.401826
    18  C    0.307708
    19  C   -0.353557
    20  H    0.205441
    21  C   -0.050000
    22  H    0.065044
    23  C   -0.077545
    24  H    0.104490
    25  H    0.131357
    26  H    0.125139
    27  C    0.135140
    28  H   -0.000810
    29  H    0.051744
    30  H    0.028460
    31  N   -0.122789
    32  O   -0.882999
    33  O   -0.323911
    34  H    0.723239
    35  C   -0.097345
    36  C   -0.200274
    37  H    0.136962
    38  C    0.156872
    39  C   -0.257683
    40  H    0.166945
    41  C   -0.100161
    42  H    0.112396
    43  C   -0.113539
    44  H    0.119116
    45  C   -0.262996
    46  H    0.151813
    47  C    0.206836
    48  C   -0.333672
    49  H    0.175769
    50  C   -0.026374
    51  H    0.103522
    52  O   -0.783811
    53  O   -0.785987
    54  O   -0.799771
    55  S    1.581629
    56  O   -0.974142
    57  H    0.490819
    58  H    0.474469
    59  O   -1.133848
    60  H    0.545346
    61  H    0.539740
 Sum of ESP charges =   0.00000

 Normal termination of Gaussian 09 at Wed Jan 20 15:23:16 2021.
