 Gaussian 09, Revision D.01,
 Gaussian 09:  EM64L-G09RevD.01 24-Apr-2013

 ------------------------------------------------------------------
 #p wB97XD/6-311+g(d) polar=gamma pop=chelpg density=current NoSymm
 ------------------------------------------------------------------

 -----------------
 ONL_VSNS_0_wB97XD
 -----------------
 Symbolic Z-matrix:
 Charge =  0 Multiplicity = 1

                          Input orientation:
 ---------------------------------------------------------------------
 Center     Atomic      Atomic             Coordinates (Angstroms)
 Number     Number       Type             X           Y           Z
 ---------------------------------------------------------------------
      1          6           0        4.981328    0.071552   10.993252
      2          1           0        5.237190   -0.321152   11.796859
      3          6           0        3.721703   -0.115648   10.538604
      4          1           0        3.115443   -0.622336   11.027606
      5          6           0        3.348624    0.456768    9.338043
      6          1           0        2.486605    0.336960    9.009138
      7          6           0        4.260512    1.200576    8.637825
      8          1           0        4.008560    1.584128    7.828959
      9          6           0        5.554116    1.395680    9.108582
     10          6           0        6.571241    2.139654    8.393078
     11          1           0        7.424292    2.184832    8.762582
     12          6           0        6.352534    2.762240    7.236733
     13          1           0        5.487633    2.713152    6.900267
     14          6           0        7.313628    3.510208    6.440030
     15          6           0        6.859881    4.162080    5.285657
     16          1           0        5.964942    4.086784    5.044526
     17          6           0        7.706735    4.910298    4.500788
     18          6           0        9.054207    5.005312    4.845144
     19          6           0        9.516534    4.350528    5.975355
     20          1           0       10.415511    4.407104    6.204980
     21          6           0        8.656140    3.617536    6.763017
     22          1           0        8.980968    3.189056    7.521586
     23          6           0        7.209337    0.995072   10.903999
     24          1           0        7.243593    0.545792   11.752479
     25          1           0        7.874112    0.624832   10.319170
     26          1           0        7.379610    1.931072   11.030893
     27          6           0       11.211774    5.821504    4.267876
     28          1           0       11.572521    4.932928    4.304859
     29          1           0       11.643778    6.314048    3.566836
     30          1           0       11.360398    6.262464    5.106986
     31          7           0        5.874834    0.814528   10.306020
     32          8           0        7.303978    5.576563    3.386193
     33          8           0        9.824057    5.755027    4.009650
     34          1           0        6.491451    5.358080    3.188784
     35          6           0       11.625734    3.489158    8.897037
     36          6           0       11.799321    4.840243    8.824879
     37          1           0       11.333829    5.398848    9.405271
     38          6           0       12.684164    5.393856    7.871531
     39          6           0       12.895367    6.789120    7.750719
     40          1           0       12.443058    7.374848    8.313851
     41          6           0       13.756273    7.278336    6.816602
     42          1           0       13.881943    8.196864    6.744115
     43          6           0       14.450900    6.418048    5.966807
     44          1           0       15.035548    6.766656    5.332174
     45          6           0       14.279507    5.076032    6.059348
     46          1           0       14.754396    4.512768    5.493257
     47          6           0       13.388097    4.521920    7.004971
     48          6           0       13.186172    3.129984    7.116085
     49          1           0       13.649195    2.551744    6.553445
     50          6           0       12.324882    2.624128    8.035244
     51          1           0       12.196412    1.704768    8.095239
     52          8           0        9.413483    3.682848   10.235176
     53          8           0       11.304968    2.659072   11.327088
     54          8           0       10.131317    1.509414    9.570298
     55         16           0       10.537122    2.790195   10.108447
     56          8           0        3.560232    2.189824    5.300286
     57          1           0        4.022351    2.146560    4.620450
     58          1           0        3.325427    3.020160    5.397922
     59          8           0        4.825874    4.922944    2.761915
     60          1           0        4.705227    4.293120    2.368577
     61          1           0        4.096599    5.366400    2.843607
 ---------------------------------------------------------------------

 SCF Done:  E(RwB97XD) =  -1947.63911806     A.U. after   24 cycles
 SCF Done:  E(RwB97XD) =  -1947.64145782     A.U. after   29 cycles
 SCF Done:  E(RwB97XD) =  -1947.63682151     A.U. after   20 cycles
 SCF Done:  E(RwB97XD) =  -1947.63961338     A.U. after   16 cycles
 SCF Done:  E(RwB97XD) =  -1947.63866025     A.U. after   20 cycles
 SCF Done:  E(RwB97XD) =  -1947.64005662     A.U. after   18 cycles
 SCF Done:  E(RwB97XD) =  -1947.63822070     A.U. after   20 cycles

 Alpha  occ. eigenvalues --  -89.13898 -19.28491 -19.27227 -19.26554 -19.24710
 Alpha  occ. eigenvalues --  -19.14055 -19.14012 -19.13105 -14.56737 -10.40308
 Alpha  occ. eigenvalues --  -10.37650 -10.34234 -10.34072 -10.33964 -10.32724
 Alpha  occ. eigenvalues --  -10.32653 -10.30784 -10.29552 -10.29214 -10.28887
 Alpha  occ. eigenvalues --  -10.27281 -10.27228 -10.27197 -10.27167 -10.26475
 Alpha  occ. eigenvalues --  -10.26038 -10.25950 -10.25119 -10.25092 -10.24922
 Alpha  occ. eigenvalues --  -10.24823 -10.24466 -10.24405 -10.24229  -8.15410
 Alpha  occ. eigenvalues --   -6.10200  -6.10165  -6.10134  -1.26582  -1.22150
 Alpha  occ. eigenvalues --   -1.17885  -1.16695  -1.16237  -1.15631  -1.01789
 Alpha  occ. eigenvalues --   -1.01117  -0.99762  -0.98144  -0.96660  -0.96336
 Alpha  occ. eigenvalues --   -0.91649  -0.91460  -0.88547  -0.86963  -0.86476
 Alpha  occ. eigenvalues --   -0.86024  -0.83492  -0.83023  -0.81904  -0.81603
 Alpha  occ. eigenvalues --   -0.78798  -0.77354  -0.74962  -0.74121  -0.72884
 Alpha  occ. eigenvalues --   -0.72693  -0.70941  -0.70333  -0.70073  -0.69205
 Alpha  occ. eigenvalues --   -0.67177  -0.65214  -0.64559  -0.64365  -0.62545
 Alpha  occ. eigenvalues --   -0.62065  -0.61526  -0.61385  -0.60779  -0.59634
 Alpha  occ. eigenvalues --   -0.58352  -0.56800  -0.56372  -0.55877  -0.55460
 Alpha  occ. eigenvalues --   -0.55039  -0.54499  -0.54228  -0.54066  -0.53080
 Alpha  occ. eigenvalues --   -0.52868  -0.52258  -0.52079  -0.51685  -0.51141
 Alpha  occ. eigenvalues --   -0.50419  -0.50133  -0.50044  -0.48860  -0.48289
 Alpha  occ. eigenvalues --   -0.48061  -0.47482  -0.47290  -0.46612  -0.45917
 Alpha  occ. eigenvalues --   -0.45622  -0.45488  -0.44978  -0.43533  -0.42948
 Alpha  occ. eigenvalues --   -0.42593  -0.41824  -0.41456  -0.40902  -0.40405
 Alpha  occ. eigenvalues --   -0.39983  -0.36018  -0.35747  -0.35281  -0.34918
 Alpha  occ. eigenvalues --   -0.32381  -0.31465  -0.31370  -0.31239  -0.28695
 Alpha  occ. eigenvalues --   -0.27170  -0.26545  -0.26186
 Alpha virt. eigenvalues --   -0.04796  -0.01852   0.02946   0.04031   0.04171
 Alpha virt. eigenvalues --    0.05475   0.06092   0.06333   0.06853   0.07212
 Alpha virt. eigenvalues --    0.07250   0.08425   0.08602   0.08661   0.09146

 Dipole moment (field-independent basis, Debye):
    X=            -17.7522    Y=             -3.7421    Z=             -6.6856  Tot=             19.3350
 Quadrupole moment (field-independent basis, Debye-Ang):
   XX=           -447.0579   YY=           -212.7036   ZZ=           -299.5695
   XY=            -63.6547   XZ=           -219.1191   YZ=            -66.3470

  Exact polarizability: 388.263 112.086 337.111 -88.827-127.287 370.181
 Approx polarizability: 381.123  70.652 383.157 -70.447 -97.712 396.125

 ESP charges:
               1
     1  C    0.076493
     2  H    0.140319
     3  C   -0.259366
     4  H    0.168020
     5  C    0.122687
     6  H    0.105565
     7  C   -0.431531
     8  H    0.287511
     9  C    0.490342
    10  C   -0.492413
    11  H    0.288602
    12  C    0.061361
    13  H    0.080435
    14  C    0.079260
    15  C   -0.469766
    16  H    0.195165
    17  C    0.379947
    18  C    0.308288
    19  C   -0.352404
    20  H    0.207323
    21  C   -0.034120
    22  H    0.058017
    23  C   -0.051260
    24  H    0.095366
    25  H    0.119292
    26  H    0.113403
    27  C    0.150467
    28  H   -0.006829
    29  H    0.045748
    30  H    0.022780
    31  N   -0.123379
    32  O   -0.857735
    33  O   -0.318073
    34  H    0.709283
    35  C   -0.079749
    36  C   -0.192649
    37  H    0.127701
    38  C    0.151969
    39  C   -0.244474
    40  H    0.156351
    41  C   -0.097278
    42  H    0.105228
    43  C   -0.106373
    44  H    0.110680
    45  C   -0.250528
    46  H    0.141525
    47  C    0.204903
    48  C   -0.325808
    49  H    0.166301
    50  C   -0.020894
    51  H    0.095580
    52  O   -0.758812
    53  O   -0.762441
    54  O   -0.775879
    55  S    1.500989
    56  O   -0.950917
    57  H    0.480434
    58  H    0.461968
    59  O   -1.112239
    60  H    0.536104
    61  H    0.529507
 Sum of ESP charges =   0.00000

 Normal termination of Gaussian 09 at Wed Jan 20 16:49:31 2021.
