 Gaussian 09, Revision D.01,
 Gaussian 09:  EM64L-G09RevD.01 24-Apr-2013

 -----------------------------------------------------------------
 #p B3LYP/6-311+g(d) polar=gamma pop=chelpg density=current NoSymm
 -----------------------------------------------------------------

 ----------------
 ONL_VSNS_0_B3LYP
 ----------------
 Symbolic Z-matrix:
 Charge =  0 Multiplicity = 1

                          Input orientation:
 ---------------------------------------------------------------------
 Center     Atomic      Atomic             Coordinates (Angstroms)
 Number     Number       Type             X           Y           Z
 ---------------------------------------------------------------------
      1          6           0        4.981328    0.071552   10.993252
      2          1           0        5.237190   -0.321152   11.796859
      3          6           0        3.721703   -0.115648   10.538604
      4          1           0        3.115443   -0.622336   11.027606
      5          6           0        3.348624    0.456768    9.338043
      6          1           0        2.486605    0.336960    9.009138
      7          6           0        4.260512    1.200576    8.637825
      8          1           0        4.008560    1.584128    7.828959
      9          6           0        5.554116    1.395680    9.108582
     10          6           0        6.571241    2.139654    8.393078
     11          1           0        7.424292    2.184832    8.762582
     12          6           0        6.352534    2.762240    7.236733
     13          1           0        5.487633    2.713152    6.900267
     14          6           0        7.313628    3.510208    6.440030
     15          6           0        6.859881    4.162080    5.285657
     16          1           0        5.964942    4.086784    5.044526
     17          6           0        7.706735    4.910298    4.500788
     18          6           0        9.054207    5.005312    4.845144
     19          6           0        9.516534    4.350528    5.975355
     20          1           0       10.415511    4.407104    6.204980
     21          6           0        8.656140    3.617536    6.763017
     22          1           0        8.980968    3.189056    7.521586
     23          6           0        7.209337    0.995072   10.903999
     24          1           0        7.243593    0.545792   11.752479
     25          1           0        7.874112    0.624832   10.319170
     26          1           0        7.379610    1.931072   11.030893
     27          6           0       11.211774    5.821504    4.267876
     28          1           0       11.572521    4.932928    4.304859
     29          1           0       11.643778    6.314048    3.566836
     30          1           0       11.360398    6.262464    5.106986
     31          7           0        5.874834    0.814528   10.306020
     32          8           0        7.303978    5.576563    3.386193
     33          8           0        9.824057    5.755027    4.009650
     34          1           0        6.491451    5.358080    3.188784
     35          6           0       11.625734    3.489158    8.897037
     36          6           0       11.799321    4.840243    8.824879
     37          1           0       11.333829    5.398848    9.405271
     38          6           0       12.684164    5.393856    7.871531
     39          6           0       12.895367    6.789120    7.750719
     40          1           0       12.443058    7.374848    8.313851
     41          6           0       13.756273    7.278336    6.816602
     42          1           0       13.881943    8.196864    6.744115
     43          6           0       14.450900    6.418048    5.966807
     44          1           0       15.035548    6.766656    5.332174
     45          6           0       14.279507    5.076032    6.059348
     46          1           0       14.754396    4.512768    5.493257
     47          6           0       13.388097    4.521920    7.004971
     48          6           0       13.186172    3.129984    7.116085
     49          1           0       13.649195    2.551744    6.553445
     50          6           0       12.324882    2.624128    8.035244
     51          1           0       12.196412    1.704768    8.095239
     52          8           0        9.413483    3.682848   10.235176
     53          8           0       11.304968    2.659072   11.327088
     54          8           0       10.131317    1.509414    9.570298
     55         16           0       10.537122    2.790195   10.108447
     56          8           0        3.560232    2.189824    5.300286
     57          1           0        4.022351    2.146560    4.620450
     58          1           0        3.325427    3.020160    5.397922
     59          8           0        4.825874    4.922944    2.761915
     60          1           0        4.705227    4.293120    2.368577
     61          1           0        4.096599    5.366400    2.843607
 ---------------------------------------------------------------------

 SCF Done:  E(RB3LYP) =  -1948.17252065     A.U. after   20 cycles
 SCF Done:  E(RB3LYP) =  -1948.17477259     A.U. after   14 cycles
 SCF Done:  E(RB3LYP) =  -1948.17031479     A.U. after   16 cycles
 SCF Done:  E(RB3LYP) =  -1948.17294239     A.U. after   14 cycles
 SCF Done:  E(RB3LYP) =  -1948.17213843     A.U. after   16 cycles
 SCF Done:  E(RB3LYP) =  -1948.17353675     A.U. after   14 cycles
 SCF Done:  E(RB3LYP) =  -1948.17154820     A.U. after   16 cycles

 Alpha  occ. eigenvalues --  -88.97059 -19.16640 -19.15108 -19.14767 -19.12837
 Alpha  occ. eigenvalues --  -19.01819 -19.01740 -19.00980 -14.43972 -10.28060
 Alpha  occ. eigenvalues --  -10.25824 -10.23341 -10.23035 -10.22145 -10.21129
 Alpha  occ. eigenvalues --  -10.20972 -10.19128 -10.18261 -10.18250 -10.17635
 Alpha  occ. eigenvalues --  -10.16783 -10.16181 -10.15931 -10.15866 -10.15204
 Alpha  occ. eigenvalues --  -10.15192 -10.15086 -10.13952 -10.13916 -10.13757
 Alpha  occ. eigenvalues --  -10.13680 -10.13335 -10.13205 -10.13070  -8.03205
 Alpha  occ. eigenvalues --   -5.99469  -5.99432  -5.99382  -1.16959  -1.12330
 Alpha  occ. eigenvalues --   -1.08333  -1.06723  -1.06183  -1.05536  -0.92050
 Alpha  occ. eigenvalues --   -0.91429  -0.89307  -0.88036  -0.86641  -0.86345
 Alpha  occ. eigenvalues --   -0.81753  -0.81557  -0.78539  -0.77166  -0.76977
 Alpha  occ. eigenvalues --   -0.76665  -0.73790  -0.73320  -0.72286  -0.72135
 Alpha  occ. eigenvalues --   -0.69329  -0.68847  -0.65932  -0.64899  -0.64023
 Alpha  occ. eigenvalues --   -0.63584  -0.61706  -0.61069  -0.60914  -0.60304
 Alpha  occ. eigenvalues --   -0.58207  -0.56090  -0.55845  -0.55323  -0.54119
 Alpha  occ. eigenvalues --   -0.53214  -0.52611  -0.52224  -0.51906  -0.50858
 Alpha  occ. eigenvalues --   -0.49959  -0.48576  -0.47919  -0.47345  -0.47151
 Alpha  occ. eigenvalues --   -0.46682  -0.46010  -0.45798  -0.45504  -0.44515
 Alpha  occ. eigenvalues --   -0.43989  -0.43795  -0.43706  -0.43411  -0.42850
 Alpha  occ. eigenvalues --   -0.42042  -0.41936  -0.41588  -0.40586  -0.40153
 Alpha  occ. eigenvalues --   -0.39789  -0.38792  -0.38725  -0.38316  -0.37421
 Alpha  occ. eigenvalues --   -0.37350  -0.37079  -0.36713  -0.35694  -0.34841
 Alpha  occ. eigenvalues --   -0.34609  -0.33947  -0.33544  -0.33178  -0.32674
 Alpha  occ. eigenvalues --   -0.31715  -0.28232  -0.27713  -0.27276  -0.26899
 Alpha  occ. eigenvalues --   -0.24709  -0.24400  -0.23594  -0.23254  -0.21576
 Alpha  occ. eigenvalues --   -0.20859  -0.19657  -0.18273
 Alpha virt. eigenvalues --   -0.10783  -0.08527  -0.04590  -0.02640  -0.01599
 Alpha virt. eigenvalues --   -0.01572  -0.00840   0.00126   0.00161   0.01264
 Alpha virt. eigenvalues --    0.01514   0.02144   0.02672   0.02702   0.03285

 Dipole moment (field-independent basis, Debye):
    X=            -17.0846    Y=             -3.1873    Z=             -7.2489  Tot=             18.8306
 Quadrupole moment (field-independent basis, Debye-Ang):
   XX=           -441.5396   YY=           -212.0533   ZZ=           -309.9524
   XY=            -59.1079   XZ=           -217.1994   YZ=            -63.2415

  Exact polarizability: 413.978 129.101 354.983-104.045-143.625 392.102
 Approx polarizability: 605.693 178.543 615.033-185.762-231.440 651.185

 ESP charges:
               1
     1  C    0.071837
     2  H    0.129165
     3  C   -0.233542
     4  H    0.152544
     5  C    0.108249
     6  H    0.094812
     7  C   -0.401486
     8  H    0.277143
     9  C    0.453336
    10  C   -0.454503
    11  H    0.283762
    12  C    0.028137
    13  H    0.085455
    14  C    0.102440
    15  C   -0.474363
    16  H    0.194152
    17  C    0.393468
    18  C    0.314251
    19  C   -0.358624
    20  H    0.214143
    21  C   -0.019295
    22  H    0.047254
    23  C   -0.013252
    24  H    0.082734
    25  H    0.104104
    26  H    0.097573
    27  C    0.195374
    28  H   -0.018009
    29  H    0.030136
    30  H    0.013842
    31  N   -0.119405
    32  O   -0.859295
    33  O   -0.321670
    34  H    0.708549
    35  C   -0.090655
    36  C   -0.176377
    37  H    0.111951
    38  C    0.148016
    39  C   -0.231536
    40  H    0.143831
    41  C   -0.087593
    42  H    0.093291
    43  C   -0.095684
    44  H    0.098326
    45  C   -0.236404
    46  H    0.128502
    47  C    0.203984
    48  C   -0.313842
    49  H    0.153806
    50  C   -0.007235
    51  H    0.081306
    52  O   -0.767286
    53  O   -0.774330
    54  O   -0.783645
    55  S    1.551880
    56  O   -0.941724
    57  H    0.474800
    58  H    0.454994
    59  O   -1.093903
    60  H    0.526248
    61  H    0.520258
 Sum of ESP charges =   0.00000

 1\1\GINC-FLAME1\SP\RB3LYP\6-311+G(d)\C25H27N1O7S1\ROOT\17-Jan-2021\0\\
 #p B3LYP/6-311+g(d) polar=gamma pop=chelpg density=current NoSymm\\ONL
 _VSNS_0_B3LYP\\0,1\C,0,4.981328,0.071552,10.993252\H,0,5.23719,-0.3211
 52,11.796859\C,0,3.721703,-0.115648,10.538604\H,0,3.115443,-0.622336,1
 1.027606\C,0,3.348624,0.456768,9.338043\H,0,2.486605,0.33696,9.009138\
 C,0,4.260512,1.200576,8.637825\H,0,4.00856,1.584128,7.828959\C,0,5.554
 116,1.39568,9.108582\C,0,6.571241,2.139654,8.393078\H,0,7.424292,2.184
 832,8.762582\C,0,6.352534,2.76224,7.236733\H,0,5.487633,2.713152,6.900

 Normal termination of Gaussian 09 at Sun Jan 17 01:44:09 2021.
