 Gaussian 09, Revision D.01,
 Gaussian 09:  EM64L-G09RevD.01 24-Apr-2013

 -------------------------------------------------------------------
 #p PBE1PBE/6-311+g(d) polar=gamma pop=chelpg density=current NoSymm
 -------------------------------------------------------------------

 ------------------
 ONL_VSNS_0_PBE1PBE
 ------------------
 Symbolic Z-matrix:
 Charge =  0 Multiplicity = 1

                          Input orientation:
 ---------------------------------------------------------------------
 Center     Atomic      Atomic             Coordinates (Angstroms)
 Number     Number       Type             X           Y           Z
 ---------------------------------------------------------------------
      1          6           0        4.981328    0.071552   10.993252
      2          1           0        5.237190   -0.321152   11.796859
      3          6           0        3.721703   -0.115648   10.538604
      4          1           0        3.115443   -0.622336   11.027606
      5          6           0        3.348624    0.456768    9.338043
      6          1           0        2.486605    0.336960    9.009138
      7          6           0        4.260512    1.200576    8.637825
      8          1           0        4.008560    1.584128    7.828959
      9          6           0        5.554116    1.395680    9.108582
     10          6           0        6.571241    2.139654    8.393078
     11          1           0        7.424292    2.184832    8.762582
     12          6           0        6.352534    2.762240    7.236733
     13          1           0        5.487633    2.713152    6.900267
     14          6           0        7.313628    3.510208    6.440030
     15          6           0        6.859881    4.162080    5.285657
     16          1           0        5.964942    4.086784    5.044526
     17          6           0        7.706735    4.910298    4.500788
     18          6           0        9.054207    5.005312    4.845144
     19          6           0        9.516534    4.350528    5.975355
     20          1           0       10.415511    4.407104    6.204980
     21          6           0        8.656140    3.617536    6.763017
     22          1           0        8.980968    3.189056    7.521586
     23          6           0        7.209337    0.995072   10.903999
     24          1           0        7.243593    0.545792   11.752479
     25          1           0        7.874112    0.624832   10.319170
     26          1           0        7.379610    1.931072   11.030893
     27          6           0       11.211774    5.821504    4.267876
     28          1           0       11.572521    4.932928    4.304859
     29          1           0       11.643778    6.314048    3.566836
     30          1           0       11.360398    6.262464    5.106986
     31          7           0        5.874834    0.814528   10.306020
     32          8           0        7.303978    5.576563    3.386193
     33          8           0        9.824057    5.755027    4.009650
     34          1           0        6.491451    5.358080    3.188784
     35          6           0       11.625734    3.489158    8.897037
     36          6           0       11.799321    4.840243    8.824879
     37          1           0       11.333829    5.398848    9.405271
     38          6           0       12.684164    5.393856    7.871531
     39          6           0       12.895367    6.789120    7.750719
     40          1           0       12.443058    7.374848    8.313851
     41          6           0       13.756273    7.278336    6.816602
     42          1           0       13.881943    8.196864    6.744115
     43          6           0       14.450900    6.418048    5.966807
     44          1           0       15.035548    6.766656    5.332174
     45          6           0       14.279507    5.076032    6.059348
     46          1           0       14.754396    4.512768    5.493257
     47          6           0       13.388097    4.521920    7.004971
     48          6           0       13.186172    3.129984    7.116085
     49          1           0       13.649195    2.551744    6.553445
     50          6           0       12.324882    2.624128    8.035244
     51          1           0       12.196412    1.704768    8.095239
     52          8           0        9.413483    3.682848   10.235176
     53          8           0       11.304968    2.659072   11.327088
     54          8           0       10.131317    1.509414    9.570298
     55         16           0       10.537122    2.790195   10.108447
     56          8           0        3.560232    2.189824    5.300286
     57          1           0        4.022351    2.146560    4.620450
     58          1           0        3.325427    3.020160    5.397922
     59          8           0        4.825874    4.922944    2.761915
     60          1           0        4.705227    4.293120    2.368577
     61          1           0        4.096599    5.366400    2.843607
 ---------------------------------------------------------------------

 SCF Done:  E(RPBE1PBE) =  -1946.22890789     A.U. after   22 cycles
 SCF Done:  E(RPBE1PBE) =  -1946.23117273     A.U. after   14 cycles
 SCF Done:  E(RPBE1PBE) =  -1946.22668832     A.U. after   16 cycles
 SCF Done:  E(RPBE1PBE) =  -1946.22933912     A.U. after   14 cycles
 SCF Done:  E(RPBE1PBE) =  -1946.22851560     A.U. after   15 cycles
 SCF Done:  E(RPBE1PBE) =  -1946.22991063     A.U. after   14 cycles
 SCF Done:  E(RPBE1PBE) =  -1946.22794812     A.U. after   16 cycles

 Alpha  occ. eigenvalues --  -89.13480 -19.24050 -19.22840 -19.22546 -19.20665
 Alpha  occ. eigenvalues --  -19.09752 -19.09701 -19.08872 -14.51235 -10.33411
 Alpha  occ. eigenvalues --  -10.30958 -10.28383 -10.28053 -10.27330 -10.26262
 Alpha  occ. eigenvalues --  -10.26085 -10.24293 -10.23404 -10.23097 -10.22724
 Alpha  occ. eigenvalues --  -10.21317 -10.21212 -10.21190 -10.21123 -10.20460
 Alpha  occ. eigenvalues --  -10.20164 -10.20086 -10.19047 -10.19013 -10.18836
 Alpha  occ. eigenvalues --  -10.18753 -10.18414 -10.18306 -10.18151  -8.09428
 Alpha  occ. eigenvalues --   -6.03078  -6.03041  -6.02995  -1.19414  -1.14750
 Alpha  occ. eigenvalues --   -1.11000  -1.09322  -1.08827  -1.08366  -0.94513
 Alpha  occ. eigenvalues --   -0.93876  -0.91771  -0.90465  -0.89176  -0.88723
 Alpha  occ. eigenvalues --   -0.84141  -0.83798  -0.80672  -0.79408  -0.79033
 Alpha  occ. eigenvalues --   -0.78709  -0.75951  -0.75259  -0.74380  -0.74013
 Alpha  occ. eigenvalues --   -0.71156  -0.70077  -0.67601  -0.66578  -0.65410
 Alpha  occ. eigenvalues --   -0.65210  -0.63487  -0.62621  -0.62599  -0.61829
 Alpha  occ. eigenvalues --   -0.59669  -0.57483  -0.57245  -0.56913  -0.55440
 Alpha  occ. eigenvalues --   -0.54660  -0.53905  -0.53659  -0.53182  -0.52261
 Alpha  occ. eigenvalues --   -0.51186  -0.49700  -0.49130  -0.48541  -0.48357
 Alpha  occ. eigenvalues --   -0.47809  -0.47082  -0.46924  -0.46721  -0.45632
 Alpha  occ. eigenvalues --   -0.45213  -0.44978  -0.44871  -0.44419  -0.43922
 Alpha  occ. eigenvalues --   -0.43230  -0.42947  -0.42835  -0.41693  -0.41126
 Alpha  occ. eigenvalues --   -0.40833  -0.40178  -0.40088  -0.39367  -0.38656
 Alpha  occ. eigenvalues --   -0.38443  -0.38231  -0.37752  -0.36644  -0.35891
 Alpha  occ. eigenvalues --   -0.35656  -0.34836  -0.34553  -0.34168  -0.33451
 Alpha  occ. eigenvalues --   -0.32873  -0.29165  -0.28848  -0.28325  -0.28014
 Alpha  occ. eigenvalues --   -0.25678  -0.25187  -0.24491  -0.24311  -0.22451
 Alpha  occ. eigenvalues --   -0.21503  -0.20465  -0.19243
 Alpha virt. eigenvalues --   -0.10341  -0.07939  -0.03382  -0.02099  -0.00884
 Alpha virt. eigenvalues --   -0.00615  -0.00035   0.00721   0.01210   0.02226
 Alpha virt. eigenvalues --    0.02366   0.03124   0.03521   0.03605   0.04162

 Dipole moment (field-independent basis, Debye):
    X=            -17.1843    Y=             -3.2595    Z=             -7.1549  Tot=             18.8975
 Quadrupole moment (field-independent basis, Debye-Ang):
   XX=           -440.5004   YY=           -210.3965   ZZ=           -306.1057
   XY=            -59.4345   XZ=           -217.4916   YZ=            -64.2524

  Exact polarizability: 406.620 126.134 349.725-102.018-140.771 385.880
 Approx polarizability: 565.778 159.550 574.021-165.455-208.009 605.333

 ESP charges:
               1
     1  C    0.063925
     2  H    0.138536
     3  C   -0.245844
     4  H    0.163279
     5  C    0.100837
     6  H    0.104992
     7  C   -0.407739
     8  H    0.282813
     9  C    0.449835
    10  C   -0.463700
    11  H    0.287958
    12  C    0.030262
    13  H    0.089123
    14  C    0.090916
    15  C   -0.472905
    16  H    0.198429
    17  C    0.374400
    18  C    0.305782
    19  C   -0.352840
    20  H    0.210620
    21  C   -0.027309
    22  H    0.055482
    23  C   -0.065422
    24  H    0.098378
    25  H    0.120678
    26  H    0.114713
    27  C    0.144587
    28  H   -0.004749
    29  H    0.045757
    30  H    0.024666
    31  N   -0.108452
    32  O   -0.847087
    33  O   -0.303041
    34  H    0.708503
    35  C   -0.085434
    36  C   -0.187326
    37  H    0.124170
    38  C    0.147117
    39  C   -0.239833
    40  H    0.153688
    41  C   -0.096671
    42  H    0.103455
    43  C   -0.105524
    44  H    0.108589
    45  C   -0.245233
    46  H    0.138797
    47  C    0.199127
    48  C   -0.320439
    49  H    0.163389
    50  C   -0.017023
    51  H    0.092429
    52  O   -0.748307
    53  O   -0.751600
    54  O   -0.765400
    55  S    1.483639
    56  O   -0.942879
    57  H    0.476040
    58  H    0.457091
    59  O   -1.103357
    60  H    0.530561
    61  H    0.525553
 Sum of ESP charges =   0.00000

 Normal termination of Gaussian 09 at Sat Jan 23 11:39:28 2021.
