 Gaussian 09, Revision D.01,
 Gaussian 09:  EM64L-G09RevD.01 24-Apr-2013

 -----------------------------------------------------------------
 #p M062X/6-311+g(d) polar=gamma pop=chelpg density=current NoSymm
 -----------------------------------------------------------------

 ----------------
 ONL_VSNS_0_M062X
 ----------------
 Symbolic Z-matrix:
 Charge =  0 Multiplicity = 1

                          Input orientation:
 ---------------------------------------------------------------------
 Center     Atomic      Atomic             Coordinates (Angstroms)
 Number     Number       Type             X           Y           Z
 ---------------------------------------------------------------------
      1          6           0        4.981328    0.071552   10.993252
      2          1           0        5.237190   -0.321152   11.796859
      3          6           0        3.721703   -0.115648   10.538604
      4          1           0        3.115443   -0.622336   11.027606
      5          6           0        3.348624    0.456768    9.338043
      6          1           0        2.486605    0.336960    9.009138
      7          6           0        4.260512    1.200576    8.637825
      8          1           0        4.008560    1.584128    7.828959
      9          6           0        5.554116    1.395680    9.108582
     10          6           0        6.571241    2.139654    8.393078
     11          1           0        7.424292    2.184832    8.762582
     12          6           0        6.352534    2.762240    7.236733
     13          1           0        5.487633    2.713152    6.900267
     14          6           0        7.313628    3.510208    6.440030
     15          6           0        6.859881    4.162080    5.285657
     16          1           0        5.964942    4.086784    5.044526
     17          6           0        7.706735    4.910298    4.500788
     18          6           0        9.054207    5.005312    4.845144
     19          6           0        9.516534    4.350528    5.975355
     20          1           0       10.415511    4.407104    6.204980
     21          6           0        8.656140    3.617536    6.763017
     22          1           0        8.980968    3.189056    7.521586
     23          6           0        7.209337    0.995072   10.903999
     24          1           0        7.243593    0.545792   11.752479
     25          1           0        7.874112    0.624832   10.319170
     26          1           0        7.379610    1.931072   11.030893
     27          6           0       11.211774    5.821504    4.267876
     28          1           0       11.572521    4.932928    4.304859
     29          1           0       11.643778    6.314048    3.566836
     30          1           0       11.360398    6.262464    5.106986
     31          7           0        5.874834    0.814528   10.306020
     32          8           0        7.303978    5.576563    3.386193
     33          8           0        9.824057    5.755027    4.009650
     34          1           0        6.491451    5.358080    3.188784
     35          6           0       11.625734    3.489158    8.897037
     36          6           0       11.799321    4.840243    8.824879
     37          1           0       11.333829    5.398848    9.405271
     38          6           0       12.684164    5.393856    7.871531
     39          6           0       12.895367    6.789120    7.750719
     40          1           0       12.443058    7.374848    8.313851
     41          6           0       13.756273    7.278336    6.816602
     42          1           0       13.881943    8.196864    6.744115
     43          6           0       14.450900    6.418048    5.966807
     44          1           0       15.035548    6.766656    5.332174
     45          6           0       14.279507    5.076032    6.059348
     46          1           0       14.754396    4.512768    5.493257
     47          6           0       13.388097    4.521920    7.004971
     48          6           0       13.186172    3.129984    7.116085
     49          1           0       13.649195    2.551744    6.553445
     50          6           0       12.324882    2.624128    8.035244
     51          1           0       12.196412    1.704768    8.095239
     52          8           0        9.413483    3.682848   10.235176
     53          8           0       11.304968    2.659072   11.327088
     54          8           0       10.131317    1.509414    9.570298
     55         16           0       10.537122    2.790195   10.108447
     56          8           0        3.560232    2.189824    5.300286
     57          1           0        4.022351    2.146560    4.620450
     58          1           0        3.325427    3.020160    5.397922
     59          8           0        4.825874    4.922944    2.761915
     60          1           0        4.705227    4.293120    2.368577
     61          1           0        4.096599    5.366400    2.843607
 ---------------------------------------------------------------------

 SCF Done:  E(RM062X) =  -1947.51011960     A.U. after   20 cycles
 SCF Done:  E(RM062X) =  -1947.51243965     A.U. after   14 cycles
 SCF Done:  E(RM062X) =  -1947.50784281     A.U. after   17 cycles
 SCF Done:  E(RM062X) =  -1947.51060980     A.U. after   14 cycles
 SCF Done:  E(RM062X) =  -1947.50966682     A.U. after   16 cycles
 SCF Done:  E(RM062X) =  -1947.51105248     A.U. after   14 cycles
 SCF Done:  E(RM062X) =  -1947.50922778     A.U. after   16 cycles

 Alpha  occ. eigenvalues --  -90.01950 -19.65890 -19.64597 -19.64270 -19.62348
 Alpha  occ. eigenvalues --  -19.51834 -19.51801 -19.50851 -14.88445 -10.65896
 Alpha  occ. eigenvalues --  -10.63500 -10.60092 -10.59767 -10.59710 -10.58486
 Alpha  occ. eigenvalues --  -10.58356 -10.56445 -10.55564 -10.54924 -10.54750
 Alpha  occ. eigenvalues --  -10.53203 -10.53039 -10.52902 -10.52827 -10.52094
 Alpha  occ. eigenvalues --  -10.51905 -10.51810 -10.50933 -10.50898 -10.50702
 Alpha  occ. eigenvalues --  -10.50586 -10.50300 -10.50270 -10.50036  -8.35959
 Alpha  occ. eigenvalues --   -6.28212  -6.28179  -6.28132  -1.28783  -1.24144
 Alpha  occ. eigenvalues --   -1.20118  -1.18834  -1.17797  -1.17289  -1.03634
 Alpha  occ. eigenvalues --   -1.02933  -1.00051  -0.98538  -0.97215  -0.96649
 Alpha  occ. eigenvalues --   -0.91967  -0.91539  -0.88550  -0.87087  -0.86426
 Alpha  occ. eigenvalues --   -0.86099  -0.83356  -0.82536  -0.81789  -0.81237
 Alpha  occ. eigenvalues --   -0.78231  -0.76743  -0.74390  -0.73408  -0.72265
 Alpha  occ. eigenvalues --   -0.71825  -0.70190  -0.69346  -0.69266  -0.68328
 Alpha  occ. eigenvalues --   -0.65899  -0.64032  -0.63534  -0.63312  -0.61543
 Alpha  occ. eigenvalues --   -0.61007  -0.60293  -0.59871  -0.59262  -0.58448
 Alpha  occ. eigenvalues --   -0.57176  -0.55986  -0.55433  -0.54826  -0.54045
 Alpha  occ. eigenvalues --   -0.53765  -0.53070  -0.53007  -0.52685  -0.52370
 Alpha  occ. eigenvalues --   -0.51280  -0.50724  -0.50587  -0.49971  -0.49672
 Alpha  occ. eigenvalues --   -0.49293  -0.48643  -0.48366  -0.47703  -0.47273
 Alpha  occ. eigenvalues --   -0.46895  -0.46348  -0.46281  -0.45321  -0.44724
 Alpha  occ. eigenvalues --   -0.44023  -0.43837  -0.43649  -0.41998  -0.41434
 Alpha  occ. eigenvalues --   -0.40865  -0.39805  -0.39756  -0.39586  -0.38329
 Alpha  occ. eigenvalues --   -0.38170  -0.34945  -0.34410  -0.33732  -0.32960
 Alpha  occ. eigenvalues --   -0.30844  -0.30371  -0.29595  -0.29381  -0.26919
 Alpha  occ. eigenvalues --   -0.25270  -0.25238  -0.24592
 Alpha virt. eigenvalues --   -0.08185  -0.05555  -0.02415  -0.00963   0.00338
 Alpha virt. eigenvalues --    0.00816   0.01542   0.01684   0.02055   0.02147
 Alpha virt. eigenvalues --    0.03077   0.03192   0.03319   0.03575   0.03990

 Dipole moment (field-independent basis, Debye):
    X=            -17.6033    Y=             -3.7044    Z=             -6.6440  Tot=             19.1765
 Quadrupole moment (field-independent basis, Debye-Ang):
   XX=           -445.9651   YY=           -214.0347   ZZ=           -300.6611
   XY=            -62.6575   XZ=           -217.7606   YZ=            -66.1038

  Exact polarizability: 388.591 113.805 336.137 -90.668-128.329 368.877
 Approx polarizability: 439.697  94.137 444.615 -95.180-126.922 460.697

 ESP charges:
               1
     1  C    0.085945
     2  H    0.137120
     3  C   -0.257272
     4  H    0.166488
     5  C    0.122020
     6  H    0.104428
     7  C   -0.426440
     8  H    0.285524
     9  C    0.486213
    10  C   -0.479075
    11  H    0.281873
    12  C    0.055293
    13  H    0.077364
    14  C    0.086738
    15  C   -0.473231
    16  H    0.197364
    17  C    0.380872
    18  C    0.310879
    19  C   -0.342031
    20  H    0.194755
    21  C   -0.033973
    22  H    0.052339
    23  C   -0.022852
    24  H    0.090263
    25  H    0.113878
    26  H    0.107580
    27  C    0.182638
    28  H   -0.017019
    29  H    0.038707
    30  H    0.009307
    31  N   -0.142240
    32  O   -0.854179
    33  O   -0.324136
    34  H    0.705576
    35  C   -0.090015
    36  C   -0.185901
    37  H    0.124347
    38  C    0.151793
    39  C   -0.243183
    40  H    0.155436
    41  C   -0.090737
    42  H    0.102824
    43  C   -0.104886
    44  H    0.109159
    45  C   -0.243782
    46  H    0.139139
    47  C    0.196236
    48  C   -0.314449
    49  H    0.162714
    50  C   -0.017072
    51  H    0.093314
    52  O   -0.765760
    53  O   -0.769350
    54  O   -0.781742
    55  S    1.527227
    56  O   -0.944174
    57  H    0.475818
    58  H    0.459711
    59  O   -1.105243
    60  H    0.530926
    61  H    0.526932
 Sum of ESP charges =   0.00000

 Normal termination of Gaussian 09 at Fri Jan 15 04:04:41 2021.
