 Gaussian 09, Revision D.01,
 Gaussian 09:  EM64L-G09RevD.01 24-Apr-2013

 -----------------------------------------------------------------
 #p M06HF/6-311+g(d) polar=gamma pop=chelpg density=current NoSymm
 -----------------------------------------------------------------

 ----------------
 ONL_VSNS_0_M06HF
 ----------------
 Symbolic Z-matrix:
 Charge =  0 Multiplicity = 1

                          Input orientation:
 ---------------------------------------------------------------------
 Center     Atomic      Atomic             Coordinates (Angstroms)
 Number     Number       Type             X           Y           Z
 ---------------------------------------------------------------------
      1          6           0        4.981328    0.071552   10.993252
      2          1           0        5.237190   -0.321152   11.796859
      3          6           0        3.721703   -0.115648   10.538604
      4          1           0        3.115443   -0.622336   11.027606
      5          6           0        3.348624    0.456768    9.338043
      6          1           0        2.486605    0.336960    9.009138
      7          6           0        4.260512    1.200576    8.637825
      8          1           0        4.008560    1.584128    7.828959
      9          6           0        5.554116    1.395680    9.108582
     10          6           0        6.571241    2.139654    8.393078
     11          1           0        7.424292    2.184832    8.762582
     12          6           0        6.352534    2.762240    7.236733
     13          1           0        5.487633    2.713152    6.900267
     14          6           0        7.313628    3.510208    6.440030
     15          6           0        6.859881    4.162080    5.285657
     16          1           0        5.964942    4.086784    5.044526
     17          6           0        7.706735    4.910298    4.500788
     18          6           0        9.054207    5.005312    4.845144
     19          6           0        9.516534    4.350528    5.975355
     20          1           0       10.415511    4.407104    6.204980
     21          6           0        8.656140    3.617536    6.763017
     22          1           0        8.980968    3.189056    7.521586
     23          6           0        7.209337    0.995072   10.903999
     24          1           0        7.243593    0.545792   11.752479
     25          1           0        7.874112    0.624832   10.319170
     26          1           0        7.379610    1.931072   11.030893
     27          6           0       11.211774    5.821504    4.267876
     28          1           0       11.572521    4.932928    4.304859
     29          1           0       11.643778    6.314048    3.566836
     30          1           0       11.360398    6.262464    5.106986
     31          7           0        5.874834    0.814528   10.306020
     32          8           0        7.303978    5.576563    3.386193
     33          8           0        9.824057    5.755027    4.009650
     34          1           0        6.491451    5.358080    3.188784
     35          6           0       11.625734    3.489158    8.897037
     36          6           0       11.799321    4.840243    8.824879
     37          1           0       11.333829    5.398848    9.405271
     38          6           0       12.684164    5.393856    7.871531
     39          6           0       12.895367    6.789120    7.750719
     40          1           0       12.443058    7.374848    8.313851
     41          6           0       13.756273    7.278336    6.816602
     42          1           0       13.881943    8.196864    6.744115
     43          6           0       14.450900    6.418048    5.966807
     44          1           0       15.035548    6.766656    5.332174
     45          6           0       14.279507    5.076032    6.059348
     46          1           0       14.754396    4.512768    5.493257
     47          6           0       13.388097    4.521920    7.004971
     48          6           0       13.186172    3.129984    7.116085
     49          1           0       13.649195    2.551744    6.553445
     50          6           0       12.324882    2.624128    8.035244
     51          1           0       12.196412    1.704768    8.095239
     52          8           0        9.413483    3.682848   10.235176
     53          8           0       11.304968    2.659072   11.327088
     54          8           0       10.131317    1.509414    9.570298
     55         16           0       10.537122    2.790195   10.108447
     56          8           0        3.560232    2.189824    5.300286
     57          1           0        4.022351    2.146560    4.620450
     58          1           0        3.325427    3.020160    5.397922
     59          8           0        4.825874    4.922944    2.761915
     60          1           0        4.705227    4.293120    2.368577
     61          1           0        4.096599    5.366400    2.843607
 ---------------------------------------------------------------------

 SCF Done:  E(RM06HF) =  -1947.74156403     A.U. after   22 cycles
 SCF Done:  E(RM06HF) =  -1947.74389379     A.U. after   17 cycles
 SCF Done:  E(RM06HF) =  -1947.73927533     A.U. after   16 cycles
 SCF Done:  E(RM06HF) =  -1947.74210372     A.U. after   17 cycles
 SCF Done:  E(RM06HF) =  -1947.74106010     A.U. after   16 cycles
 SCF Done:  E(RM06HF) =  -1947.74242498     A.U. after   16 cycles
 SCF Done:  E(RM06HF) =  -1947.74074218     A.U. after   18 cycles

 Alpha  occ. eigenvalues --  -91.21939 -20.22792 -20.21654 -20.20251 -20.18741
 Alpha  occ. eigenvalues --  -20.09670 -20.09630 -20.08535 -15.38985 -11.09334
 Alpha  occ. eigenvalues --  -11.06978 -11.02957 -11.02706 -11.02350 -11.01536
 Alpha  occ. eigenvalues --  -11.01420 -10.99443 -10.98304 -10.97662 -10.97450
 Alpha  occ. eigenvalues --  -10.96099 -10.96002 -10.95876 -10.95471 -10.94948
 Alpha  occ. eigenvalues --  -10.94608 -10.94389 -10.94119 -10.94112 -10.93829
 Alpha  occ. eigenvalues --  -10.93826 -10.93651 -10.93491 -10.93339  -8.65415
 Alpha  occ. eigenvalues --   -6.61648  -6.61629  -6.61509  -1.41140  -1.36429
 Alpha  occ. eigenvalues --   -1.32786  -1.31867  -1.30342  -1.29083  -1.15633
 Alpha  occ. eigenvalues --   -1.14851  -1.12344  -1.10721  -1.09809  -1.08585
 Alpha  occ. eigenvalues --   -1.04321  -1.03211  -1.00666  -0.99040  -0.97715
 Alpha  occ. eigenvalues --   -0.97349  -0.94809  -0.93945  -0.93467  -0.92233
 Alpha  occ. eigenvalues --   -0.88928  -0.88638  -0.85368  -0.84169  -0.83440
 Alpha  occ. eigenvalues --   -0.83332  -0.81030  -0.80621  -0.80246  -0.78803
 Alpha  occ. eigenvalues --   -0.76392  -0.74535  -0.74163  -0.73264  -0.72095
 Alpha  occ. eigenvalues --   -0.71622  -0.70359  -0.69644  -0.69270  -0.68967
 Alpha  occ. eigenvalues --   -0.67196  -0.66005  -0.65724  -0.65329  -0.63762
 Alpha  occ. eigenvalues --   -0.63501  -0.63280  -0.63135  -0.62490  -0.62296
 Alpha  occ. eigenvalues --   -0.60873  -0.60489  -0.59950  -0.59679  -0.59200
 Alpha  occ. eigenvalues --   -0.58850  -0.58727  -0.58282  -0.57896  -0.57490
 Alpha  occ. eigenvalues --   -0.57384  -0.56092  -0.56055  -0.55018  -0.54376
 Alpha  occ. eigenvalues --   -0.53323  -0.53075  -0.52292  -0.50569  -0.50177
 Alpha  occ. eigenvalues --   -0.48619  -0.48510  -0.48255  -0.47533  -0.47095
 Alpha  occ. eigenvalues --   -0.46940  -0.45456  -0.45034  -0.41435  -0.40759
 Alpha  occ. eigenvalues --   -0.40480  -0.39698  -0.38473  -0.35865  -0.35300
 Alpha  occ. eigenvalues --   -0.33884  -0.31216  -0.30985
 Alpha virt. eigenvalues --   -0.04281  -0.01726  -0.01455  -0.00927   0.00543
 Alpha virt. eigenvalues --    0.01925   0.02001   0.02994   0.03156   0.03564
 Alpha virt. eigenvalues --    0.03702   0.03919   0.04240   0.04364   0.04768

 Dipole moment (field-independent basis, Debye):
    X=            -17.6738    Y=             -4.0761    Z=             -6.1178  Tot=             19.1417
 Quadrupole moment (field-independent basis, Debye-Ang):
   XX=           -441.7269   YY=           -216.2934   ZZ=           -295.3077
   XY=            -62.9153   XZ=           -216.1104   YZ=            -67.2698

  Exact polarizability: 369.167  99.862 321.473 -76.790-114.378 351.285
 Approx polarizability: 332.280  52.687 336.396 -52.454 -73.726 343.276

 ESP charges:
               1
     1  C    0.096741
     2  H    0.155257
     3  C   -0.296727
     4  H    0.189390
     5  C    0.127934
     6  H    0.122789
     7  C   -0.464691
     8  H    0.307856
     9  C    0.517327
    10  C   -0.531097
    11  H    0.320560
    12  C    0.047983
    13  H    0.103246
    14  C    0.063667
    15  C   -0.497509
    16  H    0.226992
    17  C    0.388175
    18  C    0.305060
    19  C   -0.361703
    20  H    0.219419
    21  C   -0.052676
    22  H    0.074909
    23  C   -0.019526
    24  H    0.098367
    25  H    0.120136
    26  H    0.114952
    27  C    0.145777
    28  H   -0.000611
    29  H    0.051501
    30  H    0.027876
    31  N   -0.184231
    32  O   -0.872888
    33  O   -0.349528
    34  H    0.704357
    35  C   -0.120607
    36  C   -0.187171
    37  H    0.149510
    38  C    0.137667
    39  C   -0.261211
    40  H    0.178910
    41  C   -0.110569
    42  H    0.124726
    43  C   -0.117502
    44  H    0.130782
    45  C   -0.273326
    46  H    0.165462
    47  C    0.203163
    48  C   -0.345133
    49  H    0.189271
    50  C   -0.022325
    51  H    0.114100
    52  O   -0.795756
    53  O   -0.802328
    54  O   -0.809609
    55  S    1.604989
    56  O   -0.975774
    57  H    0.489941
    58  H    0.476027
    59  O   -1.124279
    60  H    0.543438
    61  H    0.538522
 Sum of ESP charges =   0.00000

 1\1\GINC-FLAME1\SP\RM06HF\6-311+G(d)\C25H27N1O7S1\ROOT\19-Jan-2021\0\\
 #p M06HF/6-311+g(d) polar=gamma pop=chelpg density=current NoSymm\\ONL
 _VSNS_0_M06HF\\0,1\C,0,4.981328,0.071552,10.993252\H,0,5.23719,-0.3211
 52,11.796859\C,0,3.721703,-0.115648,10.538604\H,0,3.115443,-0.622336,1
 1.027606\C,0,3.348624,0.456768,9.338043\H,0,2.486605,0.33696,9.009138\
 C,0,4.260512,1.200576,8.637825\H,0,4.00856,1.584128,7.828959\C,0,5.554
 116,1.39568,9.108582\C,0,6.571241,2.139654,8.393078\H,0,7.424292,2.184
 832,8.762582\C,0,6.352534,2.76224,7.236733\H,0,5.487633,2.713152,6.900

 Normal termination of Gaussian 09 at Tue Jan 19 10:30:25 2021.
