 Gaussian 09, Revision D.01,
 Gaussian 09:  EM64L-G09RevD.01 24-Apr-2013

 ---------------------------------------------------------------------
 #p CAM-B3LYP/6-311+g(d) polar=gamma pop=chelpg density=current NoSymm
 ---------------------------------------------------------------------

 --------------------
 ONL_VSNS_0_CAM-B3LYP
 --------------------
 Symbolic Z-matrix:
 Charge =  0 Multiplicity = 1

                          Input orientation:
 ---------------------------------------------------------------------
 Center     Atomic      Atomic             Coordinates (Angstroms)
 Number     Number       Type             X           Y           Z
 ---------------------------------------------------------------------
      1          6           0        4.981328    0.071552   10.993252
      2          1           0        5.237190   -0.321152   11.796859
      3          6           0        3.721703   -0.115648   10.538604
      4          1           0        3.115443   -0.622336   11.027606
      5          6           0        3.348624    0.456768    9.338043
      6          1           0        2.486605    0.336960    9.009138
      7          6           0        4.260512    1.200576    8.637825
      8          1           0        4.008560    1.584128    7.828959
      9          6           0        5.554116    1.395680    9.108582
     10          6           0        6.571241    2.139654    8.393078
     11          1           0        7.424292    2.184832    8.762582
     12          6           0        6.352534    2.762240    7.236733
     13          1           0        5.487633    2.713152    6.900267
     14          6           0        7.313628    3.510208    6.440030
     15          6           0        6.859881    4.162080    5.285657
     16          1           0        5.964942    4.086784    5.044526
     17          6           0        7.706735    4.910298    4.500788
     18          6           0        9.054207    5.005312    4.845144
     19          6           0        9.516534    4.350528    5.975355
     20          1           0       10.415511    4.407104    6.204980
     21          6           0        8.656140    3.617536    6.763017
     22          1           0        8.980968    3.189056    7.521586
     23          6           0        7.209337    0.995072   10.903999
     24          1           0        7.243593    0.545792   11.752479
     25          1           0        7.874112    0.624832   10.319170
     26          1           0        7.379610    1.931072   11.030893
     27          6           0       11.211774    5.821504    4.267876
     28          1           0       11.572521    4.932928    4.304859
     29          1           0       11.643778    6.314048    3.566836
     30          1           0       11.360398    6.262464    5.106986
     31          7           0        5.874834    0.814528   10.306020
     32          8           0        7.303978    5.576563    3.386193
     33          8           0        9.824057    5.755027    4.009650
     34          1           0        6.491451    5.358080    3.188784
     35          6           0       11.625734    3.489158    8.897037
     36          6           0       11.799321    4.840243    8.824879
     37          1           0       11.333829    5.398848    9.405271
     38          6           0       12.684164    5.393856    7.871531
     39          6           0       12.895367    6.789120    7.750719
     40          1           0       12.443058    7.374848    8.313851
     41          6           0       13.756273    7.278336    6.816602
     42          1           0       13.881943    8.196864    6.744115
     43          6           0       14.450900    6.418048    5.966807
     44          1           0       15.035548    6.766656    5.332174
     45          6           0       14.279507    5.076032    6.059348
     46          1           0       14.754396    4.512768    5.493257
     47          6           0       13.388097    4.521920    7.004971
     48          6           0       13.186172    3.129984    7.116085
     49          1           0       13.649195    2.551744    6.553445
     50          6           0       12.324882    2.624128    8.035244
     51          1           0       12.196412    1.704768    8.095239
     52          8           0        9.413483    3.682848   10.235176
     53          8           0       11.304968    2.659072   11.327088
     54          8           0       10.131317    1.509414    9.570298
     55         16           0       10.537122    2.790195   10.108447
     56          8           0        3.560232    2.189824    5.300286
     57          1           0        4.022351    2.146560    4.620450
     58          1           0        3.325427    3.020160    5.397922
     59          8           0        4.825874    4.922944    2.761915
     60          1           0        4.705227    4.293120    2.368577
     61          1           0        4.096599    5.366400    2.843607
 ---------------------------------------------------------------------

 SCF Done:  E(RCAM-B3LYP) =  -1947.41827667     A.U. after   26 cycles
 SCF Done:  E(RCAM-B3LYP) =  -1947.42059958     A.U. after   20 cycles
 SCF Done:  E(RCAM-B3LYP) =  -1947.41599727     A.U. after   19 cycles
 SCF Done:  E(RCAM-B3LYP) =  -1947.41876297     A.U. after   19 cycles
 SCF Done:  E(RCAM-B3LYP) =  -1947.41782810     A.U. after   18 cycles
 SCF Done:  E(RCAM-B3LYP) =  -1947.41922321     A.U. after   19 cycles
 SCF Done:  E(RCAM-B3LYP) =  -1947.41737162     A.U. after   18 cycles

 Alpha  occ. eigenvalues --  -89.04562 -19.23746 -19.22410 -19.21286 -19.19568
 Alpha  occ. eigenvalues --  -19.08916 -19.08864 -19.07968 -14.51894 -10.36233
 Alpha  occ. eigenvalues --  -10.33723 -10.30363 -10.30118 -10.30063 -10.28780
 Alpha  occ. eigenvalues --  -10.28705 -10.26810 -10.25748 -10.25243 -10.24950
 Alpha  occ. eigenvalues --  -10.23668 -10.23326 -10.23257 -10.23198 -10.22554
 Alpha  occ. eigenvalues --  -10.22181 -10.22112 -10.21257 -10.21232 -10.21063
 Alpha  occ. eigenvalues --  -10.20964 -10.20608 -10.20567 -10.20379  -8.10907
 Alpha  occ. eigenvalues --   -6.07261  -6.07223  -6.07180  -1.24709  -1.20282
 Alpha  occ. eigenvalues --   -1.15957  -1.15025  -1.14371  -1.13691  -0.99916
 Alpha  occ. eigenvalues --   -0.99246  -0.97983  -0.96435  -0.95058  -0.94633
 Alpha  occ. eigenvalues --   -0.90019  -0.89710  -0.86760  -0.85289  -0.84764
 Alpha  occ. eigenvalues --   -0.84342  -0.81800  -0.81257  -0.80201  -0.79870
 Alpha  occ. eigenvalues --   -0.77007  -0.75769  -0.73294  -0.72382  -0.71200
 Alpha  occ. eigenvalues --   -0.71088  -0.69252  -0.68610  -0.68431  -0.67498
 Alpha  occ. eigenvalues --   -0.65472  -0.63413  -0.62853  -0.62652  -0.60867
 Alpha  occ. eigenvalues --   -0.60429  -0.59802  -0.59705  -0.59045  -0.57968
 Alpha  occ. eigenvalues --   -0.56751  -0.55302  -0.54718  -0.54163  -0.53855
 Alpha  occ. eigenvalues --   -0.53421  -0.52834  -0.52566  -0.52380  -0.51464
 Alpha  occ. eigenvalues --   -0.51080  -0.50617  -0.50424  -0.50044  -0.49568
 Alpha  occ. eigenvalues --   -0.48770  -0.48480  -0.48410  -0.47241  -0.46749
 Alpha  occ. eigenvalues --   -0.46471  -0.45721  -0.45584  -0.44931  -0.44226
 Alpha  occ. eigenvalues --   -0.43941  -0.43689  -0.43388  -0.41870  -0.41019
 Alpha  occ. eigenvalues --   -0.40803  -0.40245  -0.39580  -0.39188  -0.38855
 Alpha  occ. eigenvalues --   -0.38140  -0.34300  -0.33896  -0.33538  -0.33024
 Alpha  occ. eigenvalues --   -0.30588  -0.29745  -0.29646  -0.29433  -0.26850
 Alpha  occ. eigenvalues --   -0.25347  -0.24687  -0.24500
 Alpha virt. eigenvalues --   -0.07056  -0.04282  -0.01119   0.00896   0.01637
 Alpha virt. eigenvalues --    0.02783   0.03010   0.03391   0.03916   0.04126
 Alpha virt. eigenvalues --    0.04410   0.05051   0.05389   0.05710   0.06003

 Dipole moment (field-independent basis, Debye):
    X=            -17.6242    Y=             -3.6745    Z=             -6.7433  Tot=             19.2246
 Quadrupole moment (field-independent basis, Debye-Ang):
   XX=           -447.8630   YY=           -215.0721   ZZ=           -303.9266
   XY=            -63.0418   XZ=           -218.5363   YZ=            -65.2378

  Exact polarizability: 390.804 114.216 338.924 -90.758-129.569 372.605
 Approx polarizability: 423.727  86.560 428.779 -87.860-117.828 443.644

 ESP charges:
               1
     1  C    0.087266
     2  H    0.132688
     3  C   -0.253071
     4  H    0.159252
     5  C    0.135008
     6  H    0.095861
     7  C   -0.435924
     8  H    0.286480
     9  C    0.502289
    10  C   -0.494159
    11  H    0.292301
    12  C    0.058880
    13  H    0.081755
    14  C    0.088328
    15  C   -0.478191
    16  H    0.197670
    17  C    0.400480
    18  C    0.315363
    19  C   -0.362068
    20  H    0.216568
    21  C   -0.029114
    22  H    0.053418
    23  C   -0.001940
    24  H    0.081000
    25  H    0.103918
    26  H    0.097596
    27  C    0.186400
    28  H   -0.015314
    29  H    0.033139
    30  H    0.017179
    31  N   -0.140906
    32  O   -0.873416
    33  O   -0.335315
    34  H    0.711322
    35  C   -0.094255
    36  C   -0.176871
    37  H    0.116781
    38  C    0.147386
    39  C   -0.234689
    40  H    0.147777
    41  C   -0.090886
    42  H    0.097060
    43  C   -0.096514
    44  H    0.101802
    45  C   -0.241611
    46  H    0.132809
    47  C    0.207372
    48  C   -0.319154
    49  H    0.158429
    50  C   -0.010651
    51  H    0.085648
    52  O   -0.781780
    53  O   -0.789681
    54  O   -0.797161
    55  S    1.582579
    56  O   -0.952599
    57  H    0.480061
    58  H    0.460729
    59  O   -1.101733
    60  H    0.530140
    61  H    0.524271
 Sum of ESP charges =   0.00000

 Normal termination of Gaussian 09 at Fri Jan 15 01:43:28 2021.
