 Gaussian 09, Revision D.01,
 Gaussian 09:  EM64L-G09RevD.01 24-Apr-2013

 ----------------------------------------------------------------
 #p M06L/6-311+g(d) polar=gamma pop=chelpg density=current NoSymm
 ----------------------------------------------------------------

 ---------------
 ONL_VSNS_0_M06L
 ---------------
 Symbolic Z-matrix:
 Charge =  0 Multiplicity = 1

                          Input orientation:
 ---------------------------------------------------------------------
 Center     Atomic      Atomic             Coordinates (Angstroms)
 Number     Number       Type             X           Y           Z
 ---------------------------------------------------------------------
      1          6           0        4.981328    0.071552   10.993252
      2          1           0        5.237190   -0.321152   11.796859
      3          6           0        3.721703   -0.115648   10.538604
      4          1           0        3.115443   -0.622336   11.027606
      5          6           0        3.348624    0.456768    9.338043
      6          1           0        2.486605    0.336960    9.009138
      7          6           0        4.260512    1.200576    8.637825
      8          1           0        4.008560    1.584128    7.828959
      9          6           0        5.554116    1.395680    9.108582
     10          6           0        6.571241    2.139654    8.393078
     11          1           0        7.424292    2.184832    8.762582
     12          6           0        6.352534    2.762240    7.236733
     13          1           0        5.487633    2.713152    6.900267
     14          6           0        7.313628    3.510208    6.440030
     15          6           0        6.859881    4.162080    5.285657
     16          1           0        5.964942    4.086784    5.044526
     17          6           0        7.706735    4.910298    4.500788
     18          6           0        9.054207    5.005312    4.845144
     19          6           0        9.516534    4.350528    5.975355
     20          1           0       10.415511    4.407104    6.204980
     21          6           0        8.656140    3.617536    6.763017
     22          1           0        8.980968    3.189056    7.521586
     23          6           0        7.209337    0.995072   10.903999
     24          1           0        7.243593    0.545792   11.752479
     25          1           0        7.874112    0.624832   10.319170
     26          1           0        7.379610    1.931072   11.030893
     27          6           0       11.211774    5.821504    4.267876
     28          1           0       11.572521    4.932928    4.304859
     29          1           0       11.643778    6.314048    3.566836
     30          1           0       11.360398    6.262464    5.106986
     31          7           0        5.874834    0.814528   10.306020
     32          8           0        7.303978    5.576563    3.386193
     33          8           0        9.824057    5.755027    4.009650
     34          1           0        6.491451    5.358080    3.188784
     35          6           0       11.625734    3.489158    8.897037
     36          6           0       11.799321    4.840243    8.824879
     37          1           0       11.333829    5.398848    9.405271
     38          6           0       12.684164    5.393856    7.871531
     39          6           0       12.895367    6.789120    7.750719
     40          1           0       12.443058    7.374848    8.313851
     41          6           0       13.756273    7.278336    6.816602
     42          1           0       13.881943    8.196864    6.744115
     43          6           0       14.450900    6.418048    5.966807
     44          1           0       15.035548    6.766656    5.332174
     45          6           0       14.279507    5.076032    6.059348
     46          1           0       14.754396    4.512768    5.493257
     47          6           0       13.388097    4.521920    7.004971
     48          6           0       13.186172    3.129984    7.116085
     49          1           0       13.649195    2.551744    6.553445
     50          6           0       12.324882    2.624128    8.035244
     51          1           0       12.196412    1.704768    8.095239
     52          8           0        9.413483    3.682848   10.235176
     53          8           0       11.304968    2.659072   11.327088
     54          8           0       10.131317    1.509414    9.570298
     55         16           0       10.537122    2.790195   10.108447
     56          8           0        3.560232    2.189824    5.300286
     57          1           0        4.022351    2.146560    4.620450
     58          1           0        3.325427    3.020160    5.397922
     59          8           0        4.825874    4.922944    2.761915
     60          1           0        4.705227    4.293120    2.368577
     61          1           0        4.096599    5.366400    2.843607
 ---------------------------------------------------------------------

 SCF Done:  E(RM06L) =  -1947.93459739     A.U. after   29 cycles
 SCF Done:  E(RM06L) =  -1947.93683054     A.U. after   21 cycles
 SCF Done:  E(RM06L) =  -1947.93241407     A.U. after   21 cycles
 SCF Done:  E(RM06L) =  -1947.93498547     A.U. after   18 cycles
 SCF Done:  E(RM06L) =  -1947.93424942     A.U. after   19 cycles
 SCF Done:  E(RM06L) =  -1947.93564555     A.U. after   21 cycles
 SCF Done:  E(RM06L) =  -1947.93359405     A.U. after   19 cycles

 Alpha  occ. eigenvalues --  -88.64321 -19.00487 -18.99754 -18.98829 -18.97450
 Alpha  occ. eigenvalues --  -18.85905 -18.85799 -18.85184 -14.29628 -10.15302
 Alpha  occ. eigenvalues --  -10.13146 -10.11194 -10.10930 -10.09477 -10.08612
 Alpha  occ. eigenvalues --  -10.08416 -10.06598 -10.06253 -10.06171 -10.05330
 Alpha  occ. eigenvalues --  -10.05231 -10.03876 -10.03379 -10.03307 -10.03121
 Alpha  occ. eigenvalues --  -10.02923 -10.02449 -10.01409 -10.01353 -10.01241
 Alpha  occ. eigenvalues --  -10.01192 -10.00809 -10.00502 -10.00489  -7.97679
 Alpha  occ. eigenvalues --   -5.88629  -5.88592  -5.88562  -1.13488  -1.08721
 Alpha  occ. eigenvalues --   -1.05440  -1.03549  -1.02428  -1.01398  -0.88821
 Alpha  occ. eigenvalues --   -0.88270  -0.85130  -0.84038  -0.82410  -0.82285
 Alpha  occ. eigenvalues --   -0.77611  -0.77516  -0.74307  -0.73137  -0.73063
 Alpha  occ. eigenvalues --   -0.72937  -0.69806  -0.69219  -0.68198  -0.68046
 Alpha  occ. eigenvalues --   -0.65432  -0.63838  -0.61854  -0.60865  -0.59467
 Alpha  occ. eigenvalues --   -0.59005  -0.57588  -0.56712  -0.56524  -0.56054
 Alpha  occ. eigenvalues --   -0.53831  -0.51861  -0.51702  -0.51228  -0.50198
 Alpha  occ. eigenvalues --   -0.48651  -0.48333  -0.48201  -0.47513  -0.46466
 Alpha  occ. eigenvalues --   -0.45860  -0.44668  -0.43791  -0.43350  -0.42926
 Alpha  occ. eigenvalues --   -0.42436  -0.41909  -0.41578  -0.41302  -0.40220
 Alpha  occ. eigenvalues --   -0.40108  -0.39611  -0.39510  -0.39083  -0.38427
 Alpha  occ. eigenvalues --   -0.38407  -0.37888  -0.37308  -0.36294  -0.36158
 Alpha  occ. eigenvalues --   -0.35272  -0.34863  -0.34589  -0.34289  -0.33900
 Alpha  occ. eigenvalues --   -0.33500  -0.33098  -0.32301  -0.31876  -0.31728
 Alpha  occ. eigenvalues --   -0.31183  -0.30447  -0.29782  -0.29596  -0.28433
 Alpha  occ. eigenvalues --   -0.28365  -0.25503  -0.24386  -0.23349  -0.22688
 Alpha  occ. eigenvalues --   -0.21996  -0.21465  -0.19706  -0.19127  -0.18656
 Alpha  occ. eigenvalues --   -0.18599  -0.16775  -0.14170
 Alpha virt. eigenvalues --   -0.12191  -0.10130  -0.04194  -0.03464  -0.03331
 Alpha virt. eigenvalues --   -0.02462  -0.01256  -0.01149   0.00416   0.01270
 Alpha virt. eigenvalues --    0.01444   0.01764   0.02103   0.02577   0.02977

 Dipole moment (field-independent basis, Debye):
    X=            -16.9250    Y=             -2.9327    Z=             -7.4799  Tot=             18.7351
 Quadrupole moment (field-independent basis, Debye-Ang):
   XX=           -439.1454   YY=           -207.7415   ZZ=           -307.7856
   XY=            -58.1036   XZ=           -216.3906   YZ=            -63.1089

  Exact polarizability: 450.931 141.914 360.519 -99.789-148.569 403.281
 Approx polarizability: 818.175 298.228 782.134-283.952-366.356 863.139

 ESP charges:
               1
     1  C    0.057980
     2  H    0.126652
     3  C   -0.223087
     4  H    0.150567
     5  C    0.095303
     6  H    0.094212
     7  C   -0.382081
     8  H    0.267867
     9  C    0.423602
    10  C   -0.419458
    11  H    0.252780
    12  C    0.025499
    13  H    0.068713
    14  C    0.122426
    15  C   -0.472055
    16  H    0.184851
    17  C    0.376912
    18  C    0.307231
    19  C   -0.322047
    20  H    0.177021
    21  C   -0.029219
    22  H    0.044967
    23  C   -0.065733
    24  H    0.093815
    25  H    0.120339
    26  H    0.113629
    27  C    0.184671
    28  H   -0.018177
    29  H    0.037392
    30  H    0.006121
    31  N   -0.085791
    32  O   -0.839183
    33  O   -0.287753
    34  H    0.715136
    35  C   -0.071166
    36  C   -0.186943
    37  H    0.108640
    38  C    0.158959
    39  C   -0.233108
    40  H    0.140755
    41  C   -0.081701
    42  H    0.090051
    43  C   -0.098605
    44  H    0.095729
    45  C   -0.229171
    46  H    0.123350
    47  C    0.192987
    48  C   -0.298280
    49  H    0.146055
    50  C   -0.013239
    51  H    0.080219
    52  O   -0.732143
    53  O   -0.726634
    54  O   -0.751713
    55  S    1.444648
    56  O   -0.929915
    57  H    0.470465
    58  H    0.450735
    59  O   -1.111020
    60  H    0.531100
    61  H    0.526845
 Sum of ESP charges =   0.00000

 Normal termination of Gaussian 09 at Tue Jan 19 11:01:57 2021.
